12
Lattice="4.11427362168317 -0.0 0.0 -0.0 4.52931324091741 0.0 0.0 0.0 5.08213668220882" Properties=species:S:1:pos:R:3:forces:R:3 energy=-92.68828393987678 pbc="T T T"
O        1.18372510       4.18678387       3.17429076       0.35410035       0.31151467      -0.92278701
O        0.65397751       1.78403119       4.23288939       2.68907026       1.85312358       3.55740656
O        2.91239089       2.55825534       3.12228772       1.03771932       1.68389268       0.66113503
O        3.15733323       0.15891072       4.57275984      -2.82041894       4.49476665      -0.61064793
O        3.24772359       0.28712315       1.93144925      -3.63533066       1.10067409       0.79527823
O        3.23775971       2.53529294       0.70158840      -4.29346014       4.03537654      -0.78418993
O        1.10979836       1.97688219       1.89062381       1.18037210      -0.58093921      -0.30408298
O        0.93880713       4.23876141       0.71427834      -0.38332945      -0.05109128      -3.46213741
Si       0.09794702       1.32230809       0.80786289      -0.14757963      -7.56731633      -1.63232228
Si       1.91817005       3.45327063       1.65694859       4.58969900      -0.68882637       6.06767891
Si      -0.08539106       3.40367745       4.53055181       2.44187573      -2.27976792      -5.14032590
Si       2.19242293       1.10224353       3.16228973      -1.01260819      -2.31156823       1.77515000
12
Lattice="4.11427362168317 -0.0 0.0 -0.0 4.52931324091741 0.0 0.0 0.0 5.08213668220882" Properties=species:S:1:pos:R:3:forces:R:3 energy=-92.25384130597195 pbc="T T T"
O        1.13510974       4.30509123       3.03247541      -1.66521408      -4.60635904       2.49105699
O        0.85786859       2.06425230       4.26327791       1.59331023      -1.29119380       4.40575151
O        3.07046551       2.57222190       3.02468895      -0.93558905       1.05534601       0.14781437
O        3.10028971       0.42894940       4.37187912       2.63010936      -2.59922301       4.71483297
O        3.14184210       0.20938376       2.15832688      -0.83360145       0.84979745      -4.66734861
O        3.08904834       2.48534310       0.55387976       0.78254938       1.83796983       0.20237778
O        1.18831546       1.70542602       2.14678083      -3.68171877       5.75691924      -9.57482539
O        1.01206056       4.27274846       0.65139616      -2.16807007      -0.86636802      -2.64396342
Si      -0.03974383       1.10771413       1.08030044       0.57904971       0.35816256      -1.39332658
Si       2.04794311       3.36669917       1.57457571       1.28353341      -0.49526302       5.96059843
Si      -0.02142098       3.49599722       4.27274568       0.21156424      -0.80127367      -3.04632048
Si       2.04893066       1.13028071       3.30834345       2.20417259       0.80153574       3.40342327
12
Lattice="4.11427362168317 -0.0 0.0 -0.0 4.52931324091741 0.0 0.0 0.0 5.08213668220882" Properties=species:S:1:pos:R:3:forces:R:3 energy=-89.14903599038189 pbc="T T T"
O        1.28413784       4.12639058       3.30111970      -4.78702380       1.75939229      -1.11609380
O        0.97533123       1.74222618       4.79866148       3.39332270       5.45536797      -8.58746446
O        2.81275696       2.90113818       3.33712391       3.89514584      -6.17460486      -2.09356725
O        3.07521829       0.49881301       4.37910540       2.36486251      -0.31597023       1.19863898
O        3.14869107       0.30255120       1.79520903      -4.20135113       1.70240646       3.25514620
O        2.93668824       2.58538808       0.57888013       3.68159470       1.18847664       0.14909720
O        1.14137474       1.82003836       1.80154565      -1.21440699       0.78486189       5.06681002
O        0.82721882       4.30034719       0.88074722       1.86315630      -5.21709191      -4.67480732
Si      -0.11576228       1.18161887       0.60377679      -6.99353396      -3.78532529       4.84806712
Si       1.87642123       3.29991269       1.69228410       3.96882981       3.73987756       2.07904456
Si       0.33458424       3.27897349       4.41614128      -4.01903875       3.17158884      -0.94405870
Si       2.16468956       1.20717477       3.14224273       2.04838721      -2.30896590       0.81900032
12
Lattice="4.11427362168317 -0.0 0.0 -0.0 4.52931324091741 0.0 0.0 0.0 5.08213668220882" Properties=species:S:1:pos:R:3:forces:R:3 energy=-91.32794038380416 pbc="T T T"
O        0.94103268       4.43673179       3.14071846      -3.11709831      -7.51659280      -1.15825637
O        1.27677751       1.96365266       4.64391117      -3.30888531      -0.81776593      -3.70901291
O        3.19495044       2.59245138       3.25586349      -2.06921481      -0.04646675      -2.25213046
O        2.94293524       0.20228381       4.45768161       1.76516365       2.43592382       1.51840264
O        2.96139298       0.36725355       1.95206490       1.09580282      -2.28883275      -1.00396748
O        3.45098460       2.66877332       0.73513372      -5.47911215       0.46922860       0.08756939
O        1.32807750       1.77081400       1.74288944      -1.55374283       2.60308494       3.53216005
O        0.79691734       4.10118785       0.56406632       3.25371465       4.00659509       2.18115371
Si      -0.11554417       1.17652839       0.71615993       3.39532016      -1.94256465      -0.03167690
Si       1.99508562       3.36867256       1.80845470       1.39197086      -1.14341410      -1.82731178
Si      -0.03323919       3.55699694       4.31860902       1.16776017      -4.87175689      -0.33854992
Si       2.01959745       0.96446397       3.22774302       3.45828939       9.11269157       3.00153170
12
Lattice="4.11427362168317 -0.0 0.0 -0.0 4.52931324091741 0.0 0.0 0.0 5.08213668220882" Properties=species:S:1:pos:R:3:forces:R:3 energy=-91.15592560249388 pbc="T T T"
O        1.30134270       4.16326032       3.18398622      -1.13187702       1.39557764      -0.67510435
O        0.93587423       1.97367420       4.45875499      -0.18159832      -0.49189102      -1.28775478
O        2.92404976       2.50741758       3.09304042       1.52936101       2.88316658      -0.22085925
O        3.30925508       0.20934584       4.42441206      -1.33772414       3.00508625       2.90441736
O        3.01084838       0.41619317       2.06394182      -1.43895899      -2.17682626      -1.16788698
O        3.03480062       2.61886614       0.75506679       3.90150640      -5.23282939      -5.54220844
O        0.97855572       1.81916868       1.80245395       1.92947139       1.39068733       2.14362833
O        0.72937166       3.88302596       0.87761356       2.89166435       4.10263213      -1.27771226
Si      -0.06449827       1.02051777       1.00042502      -2.63145722       0.54549148      -7.65293702
Si       2.19515662       3.44529119       1.64613966      -3.26553609       2.06016622       5.92934837
Si       0.25795437       3.57026041       4.29081423      -1.07633958      -4.66659239       0.93004181
Si       1.85839870       1.32239036       3.03848181       0.81154798      -2.81464036       5.91687476
12
Lattice="4.11427362168317 -0.0 0.0 -0.0 4.52931324091741 0.0 0.0 0.0 5.08213668220882" Properties=species:S:1:pos:R:3:forces:R:3 energy=-87.84333849955146 pbc="T T T"
O        1.38568188       4.00509045       3.09226768      -6.25987849       2.48123737       5.08796128
O        0.96184700       2.19695940       4.36225518       5.01906282     -10.02044312       5.51306478
O        3.21565321       2.26105812       2.98727444      -3.51622757       6.03652092       0.77092777
O        3.35428548       0.55415927       4.36466781      -0.34503222      -2.60703984       3.09278393
O        2.77993022       0.32945246       2.12995057       5.19300329       0.61156990      -6.78875106
O        3.04356449       2.75980880       0.40224338      -0.04085895      -2.39875812       1.90718238
O        1.00261825       2.06171129       2.23767390       0.50832574      -3.82883901      -7.09108897
O        0.71462284       4.12658632       0.42468011       4.34356722       2.93843384       4.27040358
Si      -0.07128624       1.23154203       0.84869002      -0.78254592      -1.12598859       1.03386402
Si       2.06028162       3.26375861       1.74997262       1.71648617       1.47621113      -0.41418700
Si       0.08548604       3.38512610       4.12266622      -5.13676088       4.65962066      -1.62896701
Si       2.03916047       1.07703648       3.62954015      -0.69921408       1.77741347      -5.75308869
12
Lattice="4.11427362168317 -0.0 0.0 -0.0 4.52931324091741 0.0 0.0 0.0 5.08213668220882" Properties=species:S:1:pos:R:3:forces:R:3 energy=-89.17726211910121 pbc="T T T"
O        0.92386053       4.25668121       2.98159768       1.64650011      -3.16084961       4.73395272
O        1.20973638       1.83619163       4.46930859      -1.99034820       2.52310556       1.34389767
O        3.17639921       2.13933502       2.95644038       3.58449943       8.37373161       2.80760397
O        3.24911571       0.46039966       4.75597695      -2.74138814      -0.78383337      -2.06117037
O        3.04807661       0.10208808       2.32380655      -1.95663606      -2.52059338      -0.07738655
O        3.42587361       2.65281620       0.70983779      -2.67084472       2.27673703      -2.39879949
O        1.35737838       1.83076382       1.89462902      -2.78173339       0.73375286      -0.52176977
O        0.98763616       4.39744304       0.74896995       2.93064061      -4.48211558      -0.19429401
Si       0.23796117       1.30143095       0.70062144       1.56583436      -2.05202244      -1.20483703
Si       1.93302632       3.34892385       1.81487932       0.50476941       4.73746588      -2.19805186
Si      -0.63369016       3.53106440       4.01360018       4.43933845      -0.25722268      -0.14155704
Si       2.05229358       1.12874899       3.34347497      -2.53036548      -5.38829209      -0.08750699
12
Lattice="4.11427362168317 -0.0 0.0 -0.0 4.52931324091741 0.0 0.0 0.0 5.08213668220882" Properties=species:S:1:pos:R:3:forces:R:3 energy=-90.49687741570051 pbc="T T T"
O        0.79681679       4.05554548       3.10087038       4.06973842       2.78750454      -0.09821654
O        0.79862597       1.78162642       4.22396750       1.74246031       0.56225929       3.60430417
O        2.85662036       2.69736965       3.12955543       3.08123726       0.39538262       3.29929519
O        3.19893253       0.40595717       4.46068557      -1.81080207      -1.98035519      -0.33007539
O        3.13847680       0.40317737       1.72567281      -4.30203793      -1.31585046       3.82508313
O        3.06525495       2.50567804       0.65962141       3.51453009       1.78337577      -3.22522521
O        1.34149200       2.04695295       1.98487399      -6.01471250      -5.82114423      -3.58750639
O        0.79923186       4.14557709       0.62531221       4.26158882      -2.41792505      -0.65338128
Si       0.39471210       1.16506543       0.73875119      -6.35605561       3.25462084       2.05649873
Si       1.90244176       3.58589869       1.86780691       4.87151568      -1.42473981      -0.78156077
Si      -0.04604160       3.26505176       4.35951049      -4.65706118       1.79516392      -0.75060069
Si       2.12615911       1.08554814       3.43633185       1.59943577       2.38177623      -3.35833268
12
Lattice="4.11427362168317 -0.0 0.0 -0.0 4.52931324091741 0.0 0.0 0.0 5.08213668220882" Properties=species:S:1:pos:R:3:forces:R:3 energy=-84.26741060497807 pbc="T T T"
O        0.94028606       4.32365648       2.99005832      -1.98390479      -2.22425457       6.13362057
O        1.04822816       1.51286450       4.75011518       4.88880338       5.06897743      -7.26028553
O        3.12047936       2.77038396       3.20425275      -5.31108881      -2.20600483      -2.36788883
O        3.20059272       0.58745255       4.41174091      -0.54360366      -5.87843390       1.23118191
O        3.02124896       0.53216285       2.18353484       3.96799898      -6.41232130      -4.63335610
O        3.16613776       2.44264809       0.75716939      -2.57747760       6.35347575      -1.66344754
O        1.45090254       1.63002648       1.86228434      -6.41885356       5.62293590       2.41200515
O        0.72153139       3.78756253       0.44248099       3.69345986       4.26776356       2.97020486
Si      -0.14888171       1.18211045       0.55973440       0.45102721      -4.57879753       8.83299877
Si       1.82479670       3.80015291       1.87202960       4.48045551      -5.68331631      -6.85289755
Si       0.11550552       3.15122391       4.13996528       3.56442455       2.98443235       4.60358173
Si       2.20189888       1.22736205       3.43696494      -4.21112206       2.68603816      -3.40594469
12
Lattice="4.11427362168317 -0.0 0.0 -0.0 4.52931324091741 0.0 0.0 0.0 5.08213668220882" Properties=species:S:1:pos:R:3:forces:R:3 energy=-85.72695009694189 pbc="T T T"
O        1.19469709       4.38801397       3.16270582      -0.10193805      -6.55828514      -1.30230494
O        0.66120498       1.35982174       4.16943898       4.12700776      11.02068976       2.04841184
O        3.00513978       2.62134150       3.24416886       0.74384665       2.06446406      -5.35259305
O        3.21776225       0.29504508       4.62929780      -5.27231027      -1.71971251       0.26431282
O        3.10465845       0.21708354       2.21556694       2.35262431       2.51338568      -4.93409306
O        2.74602423       2.60420677       0.13583559       2.74137008       1.07147098       7.78049279
O        1.09871794       1.99147789       1.80658309      -0.56241343       0.85632579      -0.64329037
O        0.88379515       4.45600337       0.68053237       5.83362276      -9.62007078       1.14144912
Si      -0.13434522       1.05605009       0.84898365      -0.70845453       6.38524698       0.16809868
Si       2.10125714       3.51656230       1.63931418      -3.43828501      -3.02722327       2.46742217
Si       0.13902289       3.40741296       4.50048566      -0.86469513      -1.05344904      -4.47880706
Si       2.31887873       1.18357338       3.33752215      -4.85039852      -1.93257387       2.84095026
12
Lattice="4.11427362168317 -0.0 0.0 -0.0 4.52931324091741 0.0 0.0 0.0 5.08213668220882" Properties=species:S:1:pos:R:3:forces:R:3 energy=-87.94162217965277 pbc="T T T"
O        1.11192392       4.20030222       3.40648936       0.69200641       1.31057810      -7.78004930
O        0.87567935       1.95800735       4.45290305       0.53227636      -5.07473111       1.85113992
O        2.83343173       2.76363978       3.00581895       4.56895834      -1.44174588       4.17675197
O        2.80828740       0.50414724       4.54159348       4.47270850      -0.34012082       0.50447582
O        3.24049371       0.40159797       1.89084049      -5.19476855      -3.75264266       5.41541554
O        3.15058425       2.66934715       0.73789282       0.32976363       0.57230889      -2.29732019
O        1.16233507       1.84186777       2.08733119      -3.09897051      -0.59095131      -4.36622170
O        0.86572862       4.18301367       0.38592290       7.38705429       8.33449052      15.70330792
Si      -0.17898157       0.95114732       0.67526663       2.67391152       8.32152366      -6.02657365
Si       1.94340231       3.39501390       1.79871066       0.52529932      -2.17159913       0.01382810
Si       0.28495148       3.35370133       4.51551631     -10.89173254      -7.30017854     -11.63500808
Si       2.29769782       1.12822368       3.07209405      -1.99648794       2.13310714       4.44008814
12
Lattice="4.11427362168317 -0.0 0.0 -0.0 4.52931324091741 0.0 0.0 0.0 5.08213668220882" Properties=species:S:1:pos:R:3:forces:R:3 energy=-91.1322298740397 pbc="T T T"
O        1.15468571       4.20912566       3.13967652      -3.08036446      -2.54158511       0.08638111
O        1.13002105       2.17169259       4.63169692       0.47632108      -6.25595752      -3.23987506
O        2.96029138       2.92915452       3.04780969       0.31846605      -5.25859837       0.81722065
O        3.27725362       0.41766626       4.40064986      -0.34111302       0.92063168       0.85431765
O        3.09934696       0.15691762       1.77351379      -0.74358254       5.06839046       0.55149189
O        3.38865252       2.66078059       0.60940564      -6.56963802      -1.29376216      -0.12178841
O        0.94358367       1.76341644       1.95999311       6.32519430       2.86523109       5.05896524
O        0.86850701       3.94097340       0.60895370       1.84331420       6.50586392      -0.93233079
Si       0.00548103       1.19693659       0.90286064      -2.28389543      -4.02630542      -3.97756007
Si       2.04244607       3.44701110       1.59351314       1.21709637      -2.38621593       2.42245263
Si      -0.09206169       3.36337000       4.23434786       1.95343203       1.18514686      -0.24036065
Si       1.95032707       0.97583840       3.52290761       0.88501932       5.21709306      -1.27888038
12
Lattice="4.11427362168317 -0.0 0.0 -0.0 4.52931324091741 0.0 0.0 0.0 5.08213668220882" Properties=species:S:1:pos:R:3:forces:R:3 energy=-88.41468332441946 pbc="T T T"
O        1.34672210       3.94207656       3.29850501      -3.04023855       5.20195469       3.31930957
O        1.04832593       2.10766245       4.27814824      -2.04853341      -3.49054053       2.31780137
O        3.27625706       2.41359243       2.74780434      -4.56569718       0.92737048       4.97902307
O        3.32297471       0.18799845       4.71612596      -3.93968917       3.49386652      -1.84309104
O        2.99197413       0.14917095       2.22110016       4.23035905       3.11847947      -1.02156523
O        3.05515462       2.41962743       0.37923429       0.78625718       2.60701271      -0.71086945
O        0.98483332       2.23601821       1.82740866      -0.37028414      -4.57357877      -1.79348531
O        1.19350125       4.67087061       0.97722628      -1.24798261      -2.59329766      -2.97381100
Si      -0.10826665       1.08775574       0.76841286       3.61537120       4.12412603       4.99681170
Si       1.96075790       3.43106354       1.76989626       1.83430171      -0.48476986      -0.66736035
Si      -0.21846621       3.45826160       4.07136754       4.11908357      -9.48514895      -3.69133633
Si       2.04576832       1.07598298       3.48793836       0.62736998       1.15456502      -2.91140221
12
Lattice="4.11427362168317 -0.0 0.0 -0.0 4.52931324091741 0.0 0.0 0.0 5.08213668220882" Properties=species:S:1:pos:R:3:forces:R:3 energy=-90.4944923568437 pbc="T T T"
O        1.31476408       4.01473063       3.02808177      -5.35879490       1.45381958       3.57827232
O        0.93290497       1.97217451       4.57386477      -1.34686314       1.27763641       0.78886668
O        3.04488207       2.48201311       2.87146514       2.83732069       0.49856464       5.03190138
O        3.02987746       0.64541802       4.50665044       6.18653910      -5.10968702       3.49112215
O        2.83531882       0.36606279       2.03686242       4.19330001       0.20234509      -3.30559913
O        3.16664231       2.68651883       0.35452001      -1.12399373       0.34104961       2.89333434
O        1.06016531       1.99122585       2.07465950      -1.09264900      -2.27741319      -1.52508284
O        0.85200895       4.25745924       0.39420219       0.78456539      -0.41899402       1.25101132
Si       0.11999302       1.20336907       0.96443125      -4.52545313      -2.87424240      -2.02814416
Si       2.17826806       3.15219785       1.70971870      -0.01421741       6.98770008      -2.18039430
Si       0.03265018       3.38412376       4.09980141      -1.00900608       1.82686748       1.02261581
Si       1.90899841       1.14896605       3.66847217       0.46912954      -1.90770655      -9.01783606
12
Lattice="4.11427362168317 -0.0 0.0 -0.0 4.52931324091741 0.0 0.0 0.0 5.08213668220882" Properties=species:S:1:pos:R:3:forces:R:3 energy=-86.45037866379926 pbc="T T T"
O        1.25249747       4.32322290       3.15863974      -1.83783079      -6.02910238      -0.57760125
O        0.68615020       1.32108861       4.18018166       3.22474659      10.58616182       1.11603848
O        3.04453535       2.62963873       3.21640404       0.26061991       1.31806544      -4.50857261
O        3.15422534       0.31753333       4.67783911      -2.93651178      -2.74169903      -0.16167379
O        3.03888145       0.22807291       2.21090935       4.85748310       3.73922936      -4.81626889
O        2.72679636       2.51242474       0.16518318       3.61144925       2.33785954       6.87998359
O        1.06383930       1.98514018       1.76926532      -0.17133309       1.23989983       0.28486365
O        0.95027650       4.46544150       0.67442923       2.94448992      -8.42325264       1.14383287
Si      -0.11367502       1.09565546       0.83757353      -0.39091001       4.09447012      -0.24594656
Si       2.10928007       3.53878146       1.66573883      -4.02551784      -4.00014196       1.57879899
Si       0.14058866       3.40774469       4.49019150      -1.29198689      -0.27076385      -4.00117422
Si       2.28565621       1.20711751       3.32783274      -4.24470658      -1.85052160       3.30781562
12
Lattice="4.11427362168317 -0.0 0.0 -0.0 4.52931324091741 0.0 0.0 0.0 5.08213668220882" Properties=species:S:1:pos:R:3:forces:R:3 energy=-90.86698208739108 pbc="T T T"
O        1.27853470       4.02385215       2.91713545      -3.23871689       1.95893187       4.51913036
O        0.99653245       1.63806638       4.24830034      -3.27240420       4.36431295       2.78672981
O        3.17702490       2.96485146       3.03878255       0.14960268      -2.58565386      -0.28951870
O        3.01631421       0.41663114       4.70728736       2.65073671      -0.35350711      -1.23217086
O        3.00372812       0.73830267       2.12030636       6.27175570      -2.38425786      -4.92878534
O        3.01549597       2.75827159       0.51407239       3.99400689      -2.69183635      -1.57448629
O        1.16465658       1.86754297       1.78253426      -0.46134785       1.26125244       1.08845208
O        0.97042714       4.25176276       0.74762785      -1.74648282      -2.52224397      -2.92686152
Si      -0.03673042       1.18918952       0.98400507      -1.05702085      -3.03019002      -4.23745792
Si       2.08274868       3.23063661       1.69321903      -1.91492874       3.59186208       3.11987746
Si      -0.06828955       3.36957604       4.38939128       1.30652998       2.23169026      -2.33312594
Si       2.04219158       0.96043134       3.24150711      -2.68177448       0.15967214       6.00827730
12
Lattice="4.11427362168317 -0.0 0.0 -0.0 4.52931324091741 0.0 0.0 0.0 5.08213668220882" Properties=species:S:1:pos:R:3:forces:R:3 energy=-89.6757280885904 pbc="T T T"
O        1.01331700       3.96831949       3.21232898       1.22781569       4.30380089      -4.33768869
O        0.63160569       1.79268341       4.52287973       7.06338513       1.24076030      -5.14242937
O        2.65305863       2.79231010       3.50024055       0.87276761      -3.98695110      -2.13375102
O        3.22608261       0.33949050       4.35826199      -2.07595395      -0.04131481       0.75545804
O        2.93061693       0.51450425       1.83706987       2.55629834      -2.12783190       2.20549858
O        3.54225735       2.77107761       0.98385572      -4.28121941       0.25603694      -1.63041368
O        1.26134710       1.83225717       1.84030755      -1.03044703       1.56082418       2.76878154
O        1.18964461       4.28208926       0.58974919      -2.77031905      -0.11993076      -2.60969161
Si       0.14717031       1.02473262       0.74314547      -4.55843061       0.21501800       4.34053337
Si       2.00083540       3.53059953       1.69065506       3.84605195      -2.97066582       1.73005996
Si      -0.04350609       3.17377712       4.02320612      -1.94296775       4.37566499       5.76411772
Si       2.01499505       1.22954708       3.41321831       1.09321711      -2.70567915      -1.71060503
12
Lattice="4.11427362168317 -0.0 0.0 -0.0 4.52931324091741 0.0 0.0 0.0 5.08213668220882" Properties=species:S:1:pos:R:3:forces:R:3 energy=-86.6254697134591 pbc="T T T"
O        1.31733940       4.04289920       3.17580447      -4.12718860       0.38902461       0.17071513
O        1.11015203       1.94065449       4.83673425      -3.28869719       3.36374316      -5.19707384
O        3.17402681       2.43184937       2.84450073      -2.04119564       0.42075711       3.94584393
O        2.89340316       0.11526248       4.64686308       4.24920071       0.54390069      -1.83687451
O        3.11199148       0.29234439       1.95068015      -2.01330169      -1.26865257       1.64297967
O        3.12411526       2.48576802       0.51969560       3.81355906      -1.25783592      -6.64708844
O        1.02216612       2.05263726       2.02536295       4.06118738      -0.05747421       1.28192837
O        1.06003969       4.63276860       0.60966437      -2.07918012      -6.63400551       1.61252923
Si      -0.12915889       1.35681224       1.12101910       6.76197074      -7.21542017      -0.98642964
Si       2.26194743       3.37343125       1.28521435     -10.73711087       9.50796715       8.89328706
Si      -0.14582838       3.34695414       4.30004041       4.49340651       1.71550126      -3.76778050
Si       1.92442112       1.05154123       3.29805143       0.90746822       0.49265950       0.88795338
12
Lattice="4.11427362168317 -0.0 0.0 -0.0 4.52931324091741 0.0 0.0 0.0 5.08213668220882" Properties=species:S:1:pos:R:3:forces:R:3 energy=-85.82950186795097 pbc="T T T"
O        1.09775031       4.05481216       3.22859972      -1.06137428       3.12591938      -1.67342772
O        0.98563872       1.87039190       4.22643911      -0.39520087       0.69641001       4.00831899
O        2.93129099       2.86642039       3.00116002       2.42375062      -7.73698688       3.87899231
O        3.06333245       0.39289692       4.61705256       4.19566971       1.27754188      -1.59634760
O        2.77957203       0.15247348       1.85706882       4.57167619       7.48538384       1.45078859
O        3.35057531       2.74416285       0.41049574      -6.31718737      -4.27095229       5.16534919
O        0.60701085       2.10174241       2.06145211       5.49628837      -3.22606587      -2.40371063
O        1.33088373       4.23535348       0.45535706      -3.88610987      -0.60979613       4.61199621
Si      -0.11522769       1.15617496       0.86275846      -0.97740488      -2.49941459      -4.33171665
Si       2.04570093       3.13471241       1.82455745      -4.95024710       7.03081311      -4.85313607
Si       0.30421569       3.43043642       4.66691573       1.69104354       2.21744739     -10.38648960
Si       2.05678397       1.16582291       3.07832534      -0.79121433      -3.49045796       6.12962011
12
Lattice="4.11427362168317 -0.0 0.0 -0.0 4.52931324091741 0.0 0.0 0.0 5.08213668220882" Properties=species:S:1:pos:R:3:forces:R:3 energy=-89.6325900277152 pbc="T T T"
O        1.32963542       4.03029536       3.56211180      -4.68247899       1.65120426      -4.93798320
O        0.91252052       2.15070205       4.63354457       1.52095336      -5.99541279      -0.65485564
O        3.07870388       2.54387311       3.14440888      -2.70666889      -2.54042304      -2.94948858
O        3.03916172       0.22719893       4.26526835       8.05475807       0.64762170       7.11419476
O        3.03386625       0.23305551       2.05046450       2.31517717       1.95104660      -3.54681707
O        2.96441282       2.47489364       0.37438111       1.97493913       1.54333262       2.29732550
O        1.05309309       1.86569334       1.99417848       0.70655267       1.22362584      -0.43384092
O        1.09456540       4.25242938       0.59545556      -4.48594251       1.90697233       0.39131840
Si       0.03685989       1.20267287       0.64799924       0.01428191      -2.88413691       5.26983541
Si       2.13435481       3.51960854       1.54695403      -0.91636298      -3.56061117       4.03484719
Si      -0.10956079       3.30322255       4.15766192       1.07365364       5.49036395       0.03543013
Si       2.02478158       1.22631413       3.64572389      -2.86903682       0.56649038      -6.62009575
12
Lattice="4.11427362168317 -0.0 0.0 -0.0 4.52931324091741 0.0 0.0 0.0 5.08213668220882" Properties=species:S:1:pos:R:3:forces:R:3 energy=-86.55566978267234 pbc="T T T"
O        1.10713126       3.85124211       3.27569505       1.04441470       6.71554826      -1.56072868
O        1.07169565       1.98941315       4.70475319      -1.82525754       0.66787968      -2.73467541
O        3.08644316       2.33278278       2.78442854       2.03925389       4.63056474       3.71576603
O        3.10939311       0.23565149       4.57548951      -1.27193611       1.39910668      -2.13188197
O        2.99005172       0.47585444       1.99795069      -1.48902697      -6.55964846      -0.20646669
O        3.16708503       2.40651179       0.43774493      -0.56101091       3.82622216      -3.61659777
O        1.16111615       2.17323383       2.07189078      -3.17722432      -4.66370382      -2.35581182
O        1.11803082       4.52994297       0.49639339      -1.96571160      -4.40477640       4.01654781
Si      -0.06652127       1.40248560       1.21972615       6.47927507      -5.43852528      -1.87921592
Si       2.26421453       3.24433884       1.39789932      -5.26788003       6.44653623       3.97371764
Si      -0.15543756       3.45697923       4.29722921       4.98982245      -2.06069286      -1.55277056